! TOUCHSTONE file generated by CST MICROWAVE STUDIO
! Date and time: Fri Oct  4 19:29:34 2019
! Project name: ANTENNA.cst
! Parameters = {ANG_ALETA=15; CONST_CAJA=2; CONST_CONC=2; D_SONDA=20; E_ALETA=5; E_CAJA=2.5; GAP_ALETAS=1.5; L_ALETA=90; L_CAJA=25; L_CI=18; L_DIE=15; R_C_SONDA=0.63; R_SONDA=2.05; R_TORNILLO=2.6; TOLERANCIA=0.1; W_ALETA=70}
! Header version: 2015
! Port assignment regex: !\s*Touchstone port\s*([0-9]+)\s*=\s*CST MWS port\s*([0-9]+)\s*\(\"(.*)\"\)(\s*mode\s*([0-9]+))?.*
! Touchstone port assignment:
! Touchstone port 1 = CST MWS port 1 ("")
# GHz S DB R 50
1                       -1.88332         27.6459
1.017                   -1.77123         24.2338
1.034                   -1.67774         20.7517
1.051                   -1.60265         17.2144
1.068                   -1.54558         13.6353
1.085                   -1.50603         10.0262
1.102                   -1.48336         6.39763
1.119                   -1.47687         2.75862
1.136                   -1.48578       -0.882943
1.153                   -1.50928        -4.52043
1.17                    -1.54653        -8.14836
1.187                   -1.59669        -11.7624
1.204                   -1.65892        -15.3592
1.221                   -1.73243        -18.9367
1.238                   -1.81647        -22.4935
1.255                   -1.91036        -26.0293
1.272                   -2.01349        -29.5446
1.289                   -2.12538        -33.0407
1.306                   -2.24565        -36.5196
1.323                   -2.37405        -39.9835
1.34                     -2.5105        -43.4354
1.357                   -2.65505        -46.8783
1.374                   -2.80793        -50.3154
1.391                   -2.96951        -53.7497
1.408                   -3.14035         -57.184
1.425                   -3.32117        -60.6209
1.442                   -3.51285        -64.0623
1.459                   -3.71641        -67.5096
1.476                   -3.93306        -70.9633
1.493                   -4.16411         -74.423
1.51                    -4.41105        -77.8874
1.527                    -4.6755         -81.354
1.544                   -4.95921        -84.8191
1.561                    -5.2641        -88.2777
1.578                   -5.59226        -91.7231
1.595                   -5.94593        -95.1467
1.612                   -6.32758        -98.5382
1.629                   -6.73988        -101.884
1.646                   -7.18579        -105.169
1.663                   -7.66855        -108.372
1.68                    -8.19175        -111.469
1.697                   -8.75936        -114.427
1.714                   -9.37575        -117.208
1.731                   -10.0457        -119.759
1.748                   -10.7741        -122.013
1.765                   -11.5661         -123.88
1.782                   -12.4257        -125.242
1.799                    -13.355        -125.937
1.816                   -14.3505        -125.747
1.833                   -15.3979         -124.39
1.85                    -16.4611        -121.521
1.867                    -17.468        -116.803
1.884                   -18.2982        -110.091
1.901                   -18.8006        -101.748
1.918                   -18.8651        -92.8187
1.935                   -18.5023        -84.6505
1.952                   -17.8353        -78.1899
1.969                   -17.0136        -73.6993
1.986                   -16.1501        -70.9844
2.003                   -15.3103        -69.6968
2.02                    -14.5258           -69.5
2.037                   -13.8089        -70.1206
2.054                   -13.1617        -71.3506
2.071                   -12.5817        -73.0353
2.088                   -12.0644        -75.0599
2.105                   -11.6049         -77.338
2.122                   -11.1979        -79.8043
2.139                   -10.8386        -82.4087
2.156                   -10.5225        -85.1119
2.173                   -10.2456        -87.8831
2.19                     -10.004        -90.6978
2.207                   -9.79436        -93.5364
2.224                   -9.61347        -96.3832
2.241                    -9.4584        -99.2256
2.258                   -9.32644        -102.054
2.275                   -9.21506        -104.861
2.292                    -9.1219         -107.64
2.309                   -9.04478        -110.389
2.326                   -8.98167        -113.105
2.343                   -8.93071        -115.788
2.36                    -8.89018        -118.438
2.377                   -8.85859        -121.057
2.394                   -8.83457        -123.649
2.411                   -8.81698        -126.218
2.428                   -8.80487        -128.767
2.445                   -8.79747        -131.303
2.462                   -8.79423         -133.83
2.479                    -8.7948        -136.354
2.496                   -8.79898         -138.88
2.513                   -8.80676        -141.415
2.53                     -8.8183        -143.962
2.547                   -8.83388        -146.527
2.564                   -8.85389        -149.112
2.581                   -8.87881        -151.722
2.598                    -8.9092        -154.359
2.615                   -8.94565        -157.024
2.632                    -8.9888         -159.72
2.649                    -9.0393        -162.446
2.666                   -9.09778        -165.203
2.683                   -9.16488        -167.991
2.7                     -9.24123        -170.808
2.717                   -9.32741        -173.655
2.734                     -9.424         -176.53
2.751                   -9.53157        -179.431
2.768                   -9.65064         177.642
2.785                   -9.78175         174.692
2.802                   -9.92543         171.718
2.819                   -10.0822         168.723
2.836                   -10.2526         165.707
2.853                   -10.4373         162.671
2.87                    -10.6369         159.616
2.887                    -10.852         156.541
2.904                   -11.0835         153.447
2.921                   -11.3323         150.333
2.938                   -11.5994         147.198
2.955                    -11.886         144.041
2.972                   -12.1934         140.862
2.989                   -12.5234         137.658
3.006                   -12.8776         134.427
3.023                   -13.2585         131.168
3.04                    -13.6686         127.876
3.057                    -14.111         124.549
3.074                   -14.5894         121.183
3.091                   -15.1084         117.772
3.108                   -15.6734         114.313
3.125                    -16.291         110.796
3.142                   -16.9697         107.213
3.159                     -17.72         103.551
3.176                   -18.5558         99.7934
3.193                   -19.4953         95.9136
3.21                    -20.5636         91.8731
3.227                   -21.7962         87.6089
3.244                   -23.2465         83.0119
3.261                   -24.9983         77.8749
3.278                   -27.1962         71.7528
3.295                   -30.1144         63.4982
3.312                   -34.3285         49.1546
3.329                   -40.2487          8.6866
3.346                   -38.2738        -65.3508
3.363                   -32.7761        -92.3223
3.38                    -29.1251         -103.84
3.397                   -26.5288         -111.28
3.414                   -24.5405        -117.148
3.431                   -22.9421        -122.257
3.448                   -21.6147        -126.946
3.465                   -20.4872        -131.378
3.482                   -19.5137        -135.641
3.499                    -18.663        -139.787
3.516                   -17.9129        -143.849
3.533                    -17.247        -147.845
3.55                    -16.6531        -151.789
3.567                   -16.1214        -155.692
3.584                   -15.6444        -159.558
3.601                    -15.216        -163.392
3.618                    -14.831        -167.197
3.635                   -14.4852        -170.975
3.652                   -14.1752        -174.728
3.669                   -13.8978        -178.458
3.686                   -13.6506         177.836
3.703                   -13.4311         174.153
3.72                    -13.2375         170.491
3.737                   -13.0679         166.851
3.754                   -12.9209         163.231
3.771                    -12.795          159.63
3.788                    -12.689         156.049
3.805                   -12.6018         152.487
3.822                   -12.5325         148.941
3.839                     -12.48         145.411
3.856                   -12.4437         141.896
3.873                   -12.4229         138.394
3.89                    -12.4169         134.904
3.907                   -12.4253         131.424
3.924                   -12.4476         127.951
3.941                   -12.4834         124.484
3.958                   -12.5325         121.021
3.975                   -12.5947          117.56
3.992                   -12.6698         114.097
4.009                   -12.7579         110.632
4.026                   -12.8589         107.161
4.043                    -12.973         103.682
4.06                    -13.1002         100.192
4.077                    -13.241         96.6884
4.094                   -13.3956          93.169
4.111                   -13.5645          89.631
4.128                    -13.748         86.0712
4.145                   -13.9469          82.487
4.162                   -14.1617         78.8751
4.179                   -14.3932         75.2323
4.196                   -14.6422         71.5551
4.213                   -14.9096         67.8395
4.23                    -15.1966         64.0811
4.247                   -15.5042         60.2751
4.264                   -15.8339         56.4157
4.281                   -16.1871         52.4962
4.298                   -16.5654         48.5087
4.315                   -16.9707         44.4437
4.332                   -17.4053         40.2897
4.349                   -17.8714         36.0322
4.366                   -18.3718         31.6538
4.383                   -18.9097          27.132
4.4                     -19.4886         22.4385
4.417                   -20.1125         17.5367
4.434                   -20.7858         12.3784
4.451                   -21.5133         6.90061
4.468                   -22.2999         1.01841
4.485                   -23.1498        -5.38327
4.502                   -24.0654        -12.4607
4.519                   -25.0442        -20.4267
4.536                   -26.0731        -29.5635
4.553                   -27.1183        -40.2201
4.57                    -28.1098        -52.7548
4.587                   -28.9269        -67.3518
4.604                   -29.4128         -83.692
4.621                   -29.4451        -100.732
4.638                   -29.0258        -117.059
4.655                   -28.2792        -131.645
4.672                   -27.3622         -144.19
4.689                   -26.3939        -154.886
4.706                   -25.4434        -164.092
4.723                    -24.544        -172.155
4.74                    -23.7083        -179.358
4.757                   -22.9388          174.09
4.774                   -22.2332         168.033
4.791                   -21.5873         162.356
4.808                   -20.9963         156.975
4.825                   -20.4556         151.827
4.842                   -19.9608         146.866
4.859                   -19.5082         142.053
4.876                   -19.0944         137.362
4.893                   -18.7164          132.77
4.91                    -18.3716         128.259
4.927                   -18.0579         123.817
4.944                   -17.7732         119.432
4.961                    -17.516         115.095
4.978                   -17.2846         110.799
4.995                   -17.0779         106.539
5.012                   -16.8946          102.31
5.029                   -16.7339         98.1079
5.046                   -16.5946         93.9306
5.063                   -16.4762         89.7756
5.08                    -16.3778         85.6414
5.097                   -16.2988         81.5266
5.114                   -16.2386         77.4303
5.131                   -16.1967          73.352
5.148                   -16.1726         69.2914
5.165                   -16.1657         65.2485
5.182                   -16.1758         61.2234
5.199                   -16.2023         57.2161
5.216                   -16.2448         53.2272
5.233                   -16.3031         49.2571
5.25                    -16.3766         45.3061
5.267                   -16.4652         41.3744
5.284                   -16.5683         37.4626
5.301                   -16.6858         33.5711
5.318                   -16.8172         29.7002
5.335                   -16.9622           25.85
5.352                   -17.1206         22.0203
5.369                    -17.292         18.2113
5.386                   -17.4762         14.4225
5.403                   -17.6728         10.6531
5.42                    -17.8817         6.90271
5.437                   -18.1025         3.17017
5.454                   -18.3352       -0.546208
5.471                   -18.5796        -4.24756
5.488                   -18.8354        -7.93607
5.505                   -19.1028         -11.614
5.522                   -19.3816        -15.2841
5.539                    -19.672         -18.949
5.556                    -19.974        -22.6125
5.573                   -20.2879        -26.2782
5.59                    -20.6141        -29.9497
5.607                   -20.9528        -33.6321
5.624                   -21.3048        -37.3297
5.641                   -21.6705        -41.0481
5.658                    -22.051        -44.7932
5.675                   -22.4471        -48.5711
5.692                   -22.8599        -52.3884
5.709                   -23.2909        -56.2531
5.726                   -23.7415        -60.1733
5.743                   -24.2135        -64.1589
5.76                    -24.7091        -68.2206
5.777                   -25.2305         -72.371
5.794                   -25.7806        -76.6251
5.811                   -26.3623        -81.0012
5.828                   -26.9794        -85.5215
5.845                   -27.6358        -90.2139
5.862                   -28.3365        -95.1144
5.879                   -29.0866        -100.269
5.896                   -29.8924        -105.741
5.913                   -30.7603        -111.612
5.93                     -31.697            -118
5.947                   -32.7081        -125.063
5.964                   -33.7957         -133.03
5.981                   -34.9524        -142.216
5.998                     -36.15         -153.04
6.015                   -37.3184        -165.991
6.032                   -38.3203         178.576
6.049                   -38.9534         160.894
6.066                   -39.0431         142.226
6.083                   -38.5848         124.436
6.1                     -37.7483         108.829
6.117                   -36.7372         95.6789
6.134                   -35.6919         84.6426
6.151                   -34.6848         75.2322
6.168                   -33.7452         67.0234
6.185                   -32.8808          59.696
6.202                   -32.0898         53.0203
6.219                   -31.3665          46.833
6.236                   -30.7041         41.0169
6.253                   -30.0959         35.4874
6.27                    -29.5358          30.182
6.287                   -29.0181         25.0537
6.304                    -28.538         20.0667
6.321                   -28.0914         15.1935
6.338                   -27.6744         10.4121
6.355                   -27.2838         5.70516
6.372                   -26.9169         1.05845
6.389                    -26.571        -3.53949
6.406                    -26.244        -8.09877
6.423                    -25.934        -12.6271
6.44                    -25.6392        -17.1313
6.457                   -25.3582        -21.6175
6.474                   -25.0896        -26.0907
6.491                   -24.8323        -30.5549
6.508                   -24.5851        -35.0142
6.525                   -24.3473        -39.4716
6.542                   -24.1179        -43.9299
6.559                   -23.8962        -48.3912
6.576                   -23.6817        -52.8576
6.593                   -23.4738        -57.3305
6.61                     -23.272        -61.8114
6.627                    -23.076        -66.3008
6.644                   -22.8853        -70.7998
6.661                   -22.6997        -75.3083
6.678                   -22.5189        -79.8268
6.695                   -22.3428        -84.3551
6.712                   -22.1712        -88.8929
6.729                    -22.004        -93.4396
6.746                   -21.8411        -97.9946
6.763                   -21.6825        -102.557
6.78                    -21.5281        -107.126
6.797                    -21.378          -111.7
6.814                   -21.2321        -116.278
6.831                   -21.0905        -120.859
6.848                   -20.9533        -125.441
6.865                   -20.8206        -130.023
6.882                   -20.6924        -134.603
6.899                   -20.5689        -139.179
6.916                   -20.4502         -143.75
6.933                   -20.3364        -148.313
6.95                    -20.2277        -152.867
6.967                   -20.1243        -157.411
6.984                   -20.0262        -161.942
7.001                   -19.9336        -166.458
7.018                   -19.8468        -170.957
7.035                   -19.7658        -175.437
7.052                   -19.6908        -179.896
7.069                    -19.622         175.667
7.086                   -19.5596         171.256
7.103                   -19.5036         166.872
7.12                    -19.4543         162.518
7.137                   -19.4118         158.195
7.154                   -19.3761         153.907
7.171                   -19.3474         149.655
7.188                   -19.3258         145.443
7.205                   -19.3113         141.271
7.222                   -19.3041         137.144
7.239                   -19.3041         133.063
7.256                   -19.3113          129.03
7.273                   -19.3258          125.05
7.29                    -19.3475         121.124
7.307                   -19.3763         117.255
7.324                   -19.4121         113.446
7.341                   -19.4547           109.7
7.358                    -19.504         106.018
7.375                   -19.5598         102.405
7.392                   -19.6217          98.861
7.409                   -19.6894         95.3901
7.426                   -19.7627         91.9942
7.443                   -19.8411         88.6755
7.46                    -19.9242         85.4357
7.477                   -20.0116         82.2766
7.494                   -20.1026         79.1998
7.511                   -20.1969         76.2061
7.528                   -20.2939         73.2964
7.545                   -20.3929         70.4712
7.562                   -20.4935         67.7306
7.579                   -20.5951          65.074
7.596                   -20.6971         62.5012
7.613                    -20.799         60.0108
7.63                    -20.9003         57.6017
7.647                   -21.0005         55.2722
7.664                   -21.0992         53.0209
7.681                   -21.1961         50.8456
7.698                   -21.2908         48.7447
7.715                    -21.383         46.7165
7.732                   -21.4725         44.7593
7.749                   -21.5591         42.8718
7.766                   -21.6426          41.053
7.783                   -21.7228         39.3021
7.8                     -21.7995         37.6189
7.817                   -21.8724         36.0033
7.834                   -21.9412          34.456
7.851                   -22.0054         32.9772
7.868                   -22.0647         31.5676
7.885                   -22.1183         30.2277
7.902                   -22.1654         28.9576
7.919                   -22.2053         27.7572
7.936                   -22.2369         26.6251
7.953                   -22.2591         25.5591
7.97                    -22.2707         24.5555
7.987                   -22.2705         23.6093
8.004                   -22.2574         22.7134
8.021                   -22.2302         21.8593
8.038                    -22.188         21.0367
8.055                     -22.13         20.2334
8.072                    -22.056         19.4367
8.089                   -21.9656         18.6321
8.106                   -21.8593         17.8055
8.123                   -21.7376         16.9429
8.14                    -21.6014         16.0306
8.157                   -21.4521         15.0565
8.174                   -21.2913         14.0099
8.191                   -21.1208          12.882
8.208                   -20.9424         11.6663
8.225                   -20.7582         10.3578
8.242                   -20.5702         8.95421
8.259                   -20.3805         7.45513
8.276                   -20.1909         5.86139
8.293                   -20.0033         4.17595
8.31                    -19.8192         2.40292
8.327                   -19.6403        0.547111
8.344                   -19.4678        -1.38511
8.361                    -19.303        -3.38764
8.378                   -19.1468        -5.45293
8.395                   -19.0001        -7.57377
8.412                   -18.8637        -9.74245
8.429                   -18.7381        -11.9511
8.446                   -18.6239        -14.1918
8.463                   -18.5212         -16.457
8.48                    -18.4304        -18.7387
8.497                   -18.3516        -21.0292
8.514                   -18.2848         -23.321
8.531                   -18.2299        -25.6068
8.548                   -18.1867        -27.8792
8.565                   -18.1549        -30.1311
8.582                   -18.1344        -32.3558
8.599                   -18.1244        -34.5467
8.616                   -18.1247        -36.6973
8.633                   -18.1345        -38.8018
8.65                    -18.1531        -40.8545
8.667                   -18.1799        -42.8499
8.684                   -18.2138        -44.7834
8.701                    -18.254        -46.6506
8.718                   -18.2994         -48.448
8.735                    -18.349        -50.1726
8.752                   -18.4015        -51.8219
8.769                   -18.4559        -53.3946
8.786                   -18.5107        -54.8906
8.803                   -18.5648        -56.3098
8.82                    -18.6169        -57.6541
8.837                   -18.6658         -58.926
8.854                   -18.7101        -60.1292
8.871                   -18.7489        -61.2681
8.888                    -18.781         -62.349
8.905                   -18.8056        -63.3781
8.922                   -18.8219        -64.3621
8.939                   -18.8291          -65.31
8.956                    -18.827        -66.2294
8.973                   -18.8151        -67.1288
8.99                    -18.7935        -68.0174
9.007                   -18.7621         -68.903
9.024                   -18.7212        -69.7941
9.041                   -18.6711        -70.6982
9.058                   -18.6124        -71.6227
9.075                   -18.5457        -72.5737
9.092                   -18.4716        -73.5576
9.109                   -18.3909        -74.5789
9.126                   -18.3045        -75.6421
9.143                   -18.2131        -76.7509
9.16                    -18.1176        -77.9082
9.177                   -18.0189        -79.1164
9.194                    -17.918        -80.3771
9.211                   -17.8155        -81.6912
9.228                   -17.7124        -83.0598
9.245                   -17.6095        -84.4829
9.262                   -17.5075          -85.96
9.279                   -17.4074        -87.4909
9.296                   -17.3098        -89.0743
9.313                   -17.2154        -90.7092
9.33                     -17.125        -92.3934
9.347                   -17.0391        -94.1253
9.364                   -16.9585        -95.9029
9.381                   -16.8838        -97.7233
9.398                   -16.8155        -99.5841
9.415                   -16.7541        -101.482
9.432                   -16.7002        -103.414
9.449                   -16.6542        -105.378
9.466                   -16.6166        -107.368
9.483                   -16.5877        -109.382
9.5                     -16.5679        -111.415
9.517                   -16.5576        -113.465
9.534                    -16.557        -115.525
9.551                   -16.5664        -117.593
9.568                    -16.586        -119.664
9.585                   -16.6159        -121.732
9.602                   -16.6562        -123.794
9.619                   -16.7071        -125.844
9.636                   -16.7685        -127.878
9.653                   -16.8406         -129.89
9.67                    -16.9231        -131.876
9.687                   -17.0159        -133.831
9.704                    -17.119        -135.749
9.721                   -17.2321        -137.624
9.738                   -17.3549        -139.452
9.755                    -17.487        -141.228
9.772                   -17.6282        -142.945
9.789                   -17.7778        -144.599
9.806                   -17.9353        -146.185
9.823                   -18.1002        -147.696
9.84                    -18.2716        -149.129
9.857                   -18.4489        -150.478
9.874                   -18.6311        -151.738
9.891                   -18.8173        -152.905
9.908                   -19.0063        -153.975
9.925                   -19.1969        -154.944
9.942                    -19.388        -155.809
9.959                    -19.578        -156.567
9.976                   -19.7655        -157.218
9.993                   -19.9489         -157.76
10.01                   -20.1265        -158.193
10.027                  -20.2965        -158.519
10.044                  -20.4571        -158.741
10.061                  -20.6066        -158.864
10.078                   -20.743        -158.893
10.095                  -20.8646        -158.838
10.112                  -20.9698        -158.707
10.129                   -21.057        -158.513
10.146                  -21.1249        -158.269
10.163                  -21.1726        -157.989
10.18                   -21.1993        -157.691
10.197                  -21.2047         -157.39
10.214                  -21.1889        -157.103
10.231                  -21.1522        -156.848
10.248                  -21.0953         -156.64
10.265                  -21.0196        -156.495
10.282                  -20.9263        -156.427
10.299                  -20.8171        -156.447
10.316                  -20.6939        -156.566
10.333                  -20.5586        -156.791
10.35                   -20.4133        -157.128
10.367                    -20.26        -157.582
10.384                  -20.1007        -158.154
10.401                  -19.9374        -158.845
10.418                  -19.7718        -159.655
10.435                  -19.6056        -160.581
10.452                  -19.4404         -161.62
10.469                  -19.2777        -162.769
10.486                  -19.1187        -164.023
10.503                  -18.9646        -165.378
10.52                   -18.8164        -166.828
10.537                   -18.675        -168.368
10.554                  -18.5412        -169.992
10.571                  -18.4156        -171.697
10.588                  -18.2989        -173.475
10.605                  -18.1915        -175.323
10.622                   -18.094        -177.234
10.639                  -18.0066        -179.204
10.656                  -17.9297         178.771
10.673                  -17.8636         176.697
10.69                   -17.8084         174.577
10.707                  -17.7645         172.415
10.724                  -17.7319         170.217
10.741                  -17.7108         167.984
10.758                  -17.7014         165.721
10.775                  -17.7037         163.431
10.792                   -17.718         161.118
10.809                  -17.7443         158.783
10.826                  -17.7828         156.431
10.843                  -17.8337         154.065
10.86                    -17.897         151.686
10.877                   -17.973         149.298
10.894                  -18.0619         146.903
10.911                  -18.1639         144.505
10.928                  -18.2792         142.107
10.945                  -18.4082          139.71
10.962                  -18.5511         137.318
10.979                  -18.7083         134.935
10.996                  -18.8802         132.564
11.013                  -19.0673         130.209
11.03                     -19.27         127.875
11.047                  -19.4888         125.566
11.064                  -19.7242         123.287
11.081                   -19.977         121.046
11.098                  -20.2478         118.848
11.115                  -20.5372         116.702
11.132                   -20.846         114.617
11.149                   -21.175         112.605
11.166                  -21.5248         110.676
11.183                  -21.8963         108.847