! TOUCHSTONE file generated by CST MICROWAVE STUDIO
! Date and time: Sat Oct 19 17:57:58 2019
! Project name: antena-larga-v2.cst
! Parameters = {ALARGUE=20; ANG_ALETA=15; CONST_CAJA=2; CONST_CONC=2; D_SONDA=20; E_ALETA=5.5; E_CAJA=2.5; GAP_ALETAS=2; L_ALETA=90; L_CAJA=25; L_CI=18; L_DIE=15; R_C_SONDA=0.63; R_SONDA=2.05; R_TORNILLO=2.6; TOLERANCIA=0.5; W_ALETA=70}
! Header version: 2015
! Port assignment regex: !\s*Touchstone port\s*([0-9]+)\s*=\s*CST MWS port\s*([0-9]+)\s*\(\"(.*)\"\)(\s*mode\s*([0-9]+))?.*
! Touchstone port assignment:
! Touchstone port 1 = CST MWS port 1 ("")
! S-Parameters are not renormalized. Unphysical impedance of 0 will be written to the file.
# GHz S DB R 0
1                       -2.07029        -27.5976
1.017                   -1.95666         -31.204
1.034                   -1.85047        -34.9161
1.051                   -1.75326        -38.7264
1.068                   -1.66633        -42.6267
1.085                   -1.59081        -46.6089
1.102                   -1.52766         -50.665
1.119                    -1.4777        -54.7869
1.136                   -1.44162        -58.9668
1.153                   -1.42001         -63.197
1.17                    -1.41337        -67.4703
1.187                   -1.42215        -71.7793
1.204                   -1.44671        -76.1173
1.221                   -1.48738        -80.4774
1.238                   -1.54447        -84.8531
1.255                   -1.61824        -89.2378
1.272                   -1.70893        -93.6254
1.289                   -1.81678        -98.0094
1.306                   -1.94201        -102.384
1.323                   -2.08484        -106.742
1.34                     -2.2455        -111.077
1.357                   -2.42418        -115.383
1.374                   -2.62112        -119.653
1.391                   -2.83653        -123.879
1.408                   -3.07063        -128.055
1.425                   -3.32363        -132.171
1.442                   -3.59573         -136.22
1.459                   -3.88714        -140.191
1.476                     -4.198        -144.075
1.493                   -4.52846         -147.86
1.51                    -4.87855        -151.535
1.527                   -5.24826        -155.084
1.544                   -5.63743        -158.493
1.561                   -6.04571        -161.744
1.578                   -6.47252        -164.819
1.595                   -6.91693        -167.697
1.612                   -7.37756        -170.353
1.629                   -7.85244        -172.763
1.646                   -8.33881        -174.899
1.663                   -8.83292        -176.732
1.68                     -9.3298        -178.234
1.697                     -9.823        -179.378
1.714                   -10.3044         179.857
1.731                   -10.7643         179.483
1.748                   -11.1913         179.499
1.765                   -11.5733         179.884
1.782                   -11.8979        -179.409
1.799                   -12.1544        -178.448
1.816                    -12.335        -177.325
1.833                   -12.4358        -176.147
1.85                    -12.4582        -175.023
1.867                   -12.4079        -174.051
1.884                    -12.294        -173.314
1.901                   -12.1279        -172.866
1.918                   -11.9216        -172.739
1.935                   -11.6863        -172.945
1.952                   -11.4321        -173.478
1.969                   -11.1673         -174.32
1.986                   -10.8987        -175.449
2.003                   -10.6314        -176.839
2.02                    -10.3694        -178.464
2.037                   -10.1154         179.704
2.054                   -9.87131         177.687
2.071                   -9.63856         175.509
2.088                   -9.41794         173.187
2.105                   -9.20992          170.74
2.122                   -9.01471         168.183
2.139                   -8.83233          165.53
2.156                    -8.6627         162.791
2.173                   -8.50564         159.978
2.19                     -8.3609         157.099
2.207                   -8.22822         154.161
2.224                   -8.10733         151.172
2.241                   -7.99794         148.138
2.258                   -7.89977         145.064
2.275                   -7.81254         141.955
2.292                     -7.736         138.815
2.309                   -7.66989         135.647
2.326                   -7.61399         132.456
2.343                   -7.56807         129.244
2.36                    -7.53192         126.015
2.377                   -7.50534          122.77
2.394                   -7.48815         119.513
2.411                   -7.48018         116.245
2.428                   -7.48126         112.968
2.445                   -7.49124         109.684
2.462                      -7.51         106.395
2.479                    -7.5374         103.101
2.496                   -7.57334         99.8051
2.513                   -7.61773         96.5072
2.53                     -7.6705         93.2087
2.547                   -7.73161         89.9102
2.564                   -7.80102         86.6124
2.581                   -7.87876         83.3158
2.598                   -7.96486         80.0209
2.615                   -8.05939          76.728
2.632                   -8.16249         73.4374
2.649                   -8.27431         70.1492
2.666                   -8.39508         66.8638
2.683                   -8.52507         63.5812
2.7                     -8.66461         60.3018
2.717                   -8.81411          57.026
2.734                   -8.97404         53.7542
2.751                   -9.14494         50.4874
2.768                   -9.32746         47.2265
2.785                   -9.52231          43.973
2.802                    -9.7303         40.7286
2.819                   -9.95234         37.4959
2.836                   -10.1895         34.2778
2.853                   -10.4428         31.0783
2.87                    -10.7136          27.902
2.887                   -11.0033         24.7551
2.904                   -11.3135         21.6449
2.921                   -11.6457         18.5805
2.938                    -12.002         15.5731
2.955                   -12.3843         12.6366
2.972                    -12.795         9.78801
2.989                   -13.2365         7.04855
3.006                   -13.7114         4.44478
3.023                   -14.2225         2.00995
3.04                    -14.7727       -0.213768
3.057                   -15.3645        -2.17288
3.074                   -16.0004        -3.79882
3.091                   -16.6813        -5.00375
3.108                   -17.4061        -5.67543
3.125                   -18.1698        -5.67259
3.142                   -18.9599        -4.82352
3.159                   -19.7521        -2.93508
3.176                   -20.5042        0.174023
3.193                   -21.1523         4.59873
3.21                    -21.6146         10.2289
3.227                   -21.8136         16.6456
3.244                   -21.7106         23.1577
3.261                   -21.3279          29.032
3.278                   -20.7357         33.7586
3.295                    -20.018         37.1455
3.312                   -19.2453         39.2422
3.329                    -18.466         40.2154
3.346                   -17.7093         40.2602
3.363                   -16.9907         39.5565
3.38                    -16.3175         38.2551
3.397                   -15.6919         36.4771
3.414                   -15.1135         34.3174
3.431                   -14.5808         31.8507
3.448                   -14.0913         29.1355
3.465                   -13.6426         26.2179
3.482                   -13.2321          23.135
3.499                   -12.8573         19.9164
3.516                   -12.5161         16.5863
3.533                   -12.2064         13.1644
3.55                    -11.9262         9.66741
3.567                   -11.6738         6.10907
3.584                   -11.4478         2.50101
3.601                   -11.2466        -1.14672
3.618                   -11.0689        -4.82559
3.635                   -10.9136        -8.52816
3.652                   -10.7797         -12.248
3.669                    -10.666        -15.9794
3.686                   -10.5716        -19.7175
3.703                   -10.4959        -23.4579
3.72                    -10.4379        -27.1968
3.737                   -10.3969        -30.9309
3.754                   -10.3723         -34.657
3.771                   -10.3635        -38.3729
3.788                   -10.3699        -42.0761
3.805                    -10.391        -45.7648
3.822                   -10.4264        -49.4374
3.839                   -10.4756        -53.0925
3.856                   -10.5384        -56.7291
3.873                   -10.6143        -60.3463
3.89                    -10.7032        -63.9432
3.907                   -10.8049        -67.5195
3.924                   -10.9193        -71.0747
3.941                   -11.0464        -74.6085
3.958                   -11.1861        -78.1206
3.975                   -11.3387        -81.6108
3.992                   -11.5043        -85.0786
4.009                   -11.6832        -88.5237
4.026                   -11.8759        -91.9452
4.043                   -12.0828        -95.3424
4.06                    -12.3047        -98.7137
4.077                   -12.5422        -102.057
4.094                   -12.7962        -105.371
4.111                   -13.0678        -108.651
4.128                   -13.3582        -111.893
4.145                   -13.6686        -115.093
4.162                   -14.0008        -118.242
4.179                   -14.3562        -121.332
4.196                   -14.7371        -124.352
4.213                   -15.1453        -127.288
4.23                    -15.5835        -130.122
4.247                   -16.0541        -132.832
4.264                   -16.5602        -135.391
4.281                   -17.1047        -137.761
4.298                   -17.6907        -139.898
4.315                   -18.3213        -141.742
4.332                   -18.9989        -143.215
4.349                   -19.7246        -144.219
4.366                   -20.4969        -144.625
4.383                   -21.3089        -144.269
4.4                     -22.1447        -142.953
4.417                   -22.9731        -140.459
4.434                   -23.7405        -136.599
4.451                   -24.3677        -131.322
4.468                   -24.7608        -124.863
4.485                   -24.8448        -117.825
4.502                   -24.6041        -111.044
4.519                   -24.0923        -105.256
4.536                   -23.4008        -100.858
4.553                   -22.6181         -97.901
4.57                    -21.8093        -96.2403
4.587                   -21.0149        -95.6609
4.604                    -20.257         -95.952
4.621                   -19.5459        -96.9336
4.638                   -18.8855        -98.4615
4.655                   -18.2759        -100.423
4.672                   -17.7154        -102.731
4.689                   -17.2016        -105.316
4.706                   -16.7316        -108.127
4.723                   -16.3026        -111.122
4.74                    -15.9119        -114.265
4.757                    -15.557        -117.532
4.774                   -15.2355          -120.9
4.791                   -14.9456        -124.351
4.808                   -14.6851        -127.869
4.825                   -14.4526        -131.442
4.842                   -14.2463        -135.059
4.859                   -14.0651        -138.711
4.876                   -13.9075         -142.39
4.893                   -13.7725        -146.088
4.91                     -13.659        -149.799
4.927                   -13.5661        -153.519
4.944                   -13.4928        -157.241
4.961                   -13.4384        -160.962
4.978                   -13.4022        -164.677
4.995                   -13.3833        -168.383
5.012                   -13.3812        -172.076
5.029                   -13.3953        -175.755
5.046                   -13.4251        -179.415
5.063                   -13.4699         176.945
5.08                    -13.5293         173.328
5.097                   -13.6029         169.735
5.114                   -13.6903         166.169
5.131                   -13.7912          162.63
5.148                   -13.9051         159.121
5.165                   -14.0318         155.642
5.182                   -14.1711         152.196
5.199                   -14.3228         148.782
5.216                   -14.4868         145.402
5.233                    -14.663         142.057
5.25                    -14.8514         138.748
5.267                    -15.052         135.477
5.284                   -15.2649         132.244
5.301                   -15.4903          129.05
5.318                   -15.7285         125.899
5.335                   -15.9798         122.791
5.352                   -16.2446         119.729
5.369                   -16.5235         116.716
5.386                   -16.8169         113.757
5.403                   -17.1257         110.856
5.42                    -17.4504         108.019
5.437                    -17.792         105.252
5.454                   -18.1513         102.565
5.471                   -18.5293         99.9674
5.488                    -18.927         97.4725
5.505                   -19.3455         95.0955
5.522                   -19.7856         92.8549
5.539                   -20.2484         90.7729
5.556                   -20.7343         88.8765
5.573                   -21.2438         87.1979
5.59                    -21.7765         85.7757
5.607                   -22.3313         84.6556
5.624                   -22.9056         83.8909
5.641                   -23.4949         83.5421
5.658                   -24.0917         83.6758
5.675                   -24.6847         84.3592
5.692                   -25.2578         85.6522
5.709                   -25.7892          87.592
5.726                   -26.2524         90.1728
5.743                    -26.618         93.3233
5.76                    -26.8592         96.8922
5.777                   -26.9579         100.656
5.794                   -26.9102         104.351
5.811                   -26.7276          107.73
5.828                   -26.4334         110.602
5.845                   -26.0568         112.855
5.862                   -25.6263         114.453
5.879                   -25.1664         115.415
5.896                   -24.6963         115.792
5.913                   -24.2298         115.649
5.93                    -23.7763         115.055
5.947                   -23.3418         114.074
5.964                     -22.93         112.764
5.981                   -22.5429         111.175
5.998                   -22.1811          109.35
6.015                   -21.8448         107.325
6.032                   -21.5336          105.13
6.049                   -21.2467         102.791
6.066                   -20.9834          100.33
6.083                   -20.7426         97.7627
6.1                     -20.5235         95.1048
6.117                   -20.3249         92.3686
6.134                   -20.1461          89.564
6.151                   -19.9861         86.6993
6.168                   -19.8443         83.7813
6.185                   -19.7197         80.8154
6.202                    -19.612         77.8061
6.219                   -19.5204         74.7566
6.236                   -19.4446         71.6695
6.253                   -19.3842         68.5468
6.27                    -19.3389         65.3893
6.287                   -19.3086         62.1979
6.304                   -19.2933         58.9729
6.321                   -19.2929         55.7137
6.338                   -19.3077         52.4202
6.355                   -19.3378         49.0912
6.372                   -19.3837         45.7259
6.389                   -19.4459         42.3228
6.406                    -19.525         38.8805
6.423                   -19.6217         35.3973
6.44                    -19.7369         31.8714
6.457                   -19.8717         28.3008
6.474                   -20.0271          24.683
6.491                   -20.2046         21.0158
6.508                   -20.4057         17.2961
6.525                   -20.6322         13.5206
6.542                   -20.8861         9.68524
6.559                   -21.1698         5.78548
6.576                   -21.4859         1.81539
6.593                   -21.8375        -2.23224
6.61                    -22.2283        -6.36652
6.627                   -22.6627        -10.5992
6.644                   -23.1457        -14.9457
6.661                   -23.6834        -19.4266
6.678                   -24.2836          -24.07
6.695                   -24.9552        -28.9145
6.712                     -25.71        -34.0152
6.729                   -26.5623        -39.4528
6.746                   -27.5306        -45.3485
6.763                    -28.638        -51.8925
6.78                    -29.9127        -59.3944
6.797                   -31.3849        -68.3815
6.814                   -33.0701        -79.7809
6.831                   -34.9067        -95.1834
6.848                   -36.5708        -116.702
6.865                   -37.2739        -144.283
6.882                   -36.4548        -171.695
6.899                   -34.7123         167.078
6.916                   -32.8197         151.895
6.933                   -31.0844          140.64
6.95                    -29.5625         131.755
6.967                   -28.2371         124.335
6.984                   -27.0782         117.863
7.001                   -26.0576         112.037
7.018                   -25.1524         106.671
7.035                   -24.3446         101.648
7.052                   -23.6197         96.8875
7.069                   -22.9662         92.3374
7.086                   -22.3751         87.9599
7.103                   -21.8388         83.7286
7.12                    -21.3512         79.6245
7.137                    -20.907         75.6334
7.154                   -20.5018         71.7448
7.171                    -20.132         67.9515
7.188                   -19.7942         64.2474
7.205                   -19.4856         60.6283
7.222                   -19.2035          57.091
7.239                   -18.9458         53.6328
7.256                   -18.7102         50.2519
7.273                   -18.4949         46.9468
7.29                     -18.298         43.7161
7.307                    -18.118         40.5582
7.324                   -17.9533         37.4723
7.341                   -17.8023         34.4568
7.358                   -17.6639         31.5102
7.375                   -17.5365         28.6311
7.392                   -17.4191         25.8173
7.409                   -17.3106          23.067
7.426                   -17.2097         20.3777
7.443                   -17.1156         17.7468
7.46                    -17.0274         15.1714
7.477                   -16.9442         12.6484
7.494                   -16.8653         10.1747
7.511                   -16.7901         7.74685
7.528                    -16.718         5.36142
7.545                   -16.6485         3.01501
7.562                   -16.5813        0.704326
7.579                   -16.5161        -1.57401
7.596                   -16.4526        -3.82283
7.613                   -16.3906        -6.04521
7.63                    -16.3301        -8.24344
7.647                    -16.271        -10.4198
7.664                   -16.2133        -12.5761
7.681                    -16.157        -14.7139
7.698                    -16.102        -16.8342
7.715                   -16.0484        -18.9379
7.732                   -15.9963        -21.0253
7.749                   -15.9455        -23.0966
7.766                   -15.8961        -25.1519
7.783                    -15.848        -27.1908
7.8                      -15.801         -29.213
7.817                   -15.7551        -31.2181
7.834                   -15.7099        -33.2057
7.851                   -15.6654        -35.1755
7.868                   -15.6211        -37.1274
7.885                   -15.5768        -39.0615
7.902                   -15.5322        -40.9782
7.919                   -15.4869        -42.8781
7.936                   -15.4405        -44.7624
7.953                   -15.3926        -46.6327
7.97                    -15.3429        -48.4906
7.987                   -15.2911        -50.3387
8.004                    -15.237        -52.1796
8.021                   -15.1801        -54.0161
8.038                   -15.1205        -55.8517
8.055                    -15.058          -57.69
8.072                   -14.9925        -59.5344
8.089                   -14.9241        -61.3889
8.106                    -14.853         -63.257
8.123                   -14.7794        -65.1421
8.14                    -14.7035        -67.0477
8.157                   -14.6257        -68.9766
8.174                   -14.5465        -70.9317
8.191                   -14.4663        -72.9148
8.208                   -14.3857        -74.9278
8.225                   -14.3051        -76.9721
8.242                   -14.2251        -79.0479
8.259                   -14.1464         -81.156
8.276                   -14.0694        -83.2956
8.293                   -13.9947        -85.4661
8.31                    -13.9228        -87.6663
8.327                   -13.8542        -89.8941
8.344                   -13.7893        -92.1481
8.361                   -13.7286        -94.4252
8.378                   -13.6723        -96.7234
8.395                   -13.6208        -99.0393
8.412                   -13.5742         -101.37
8.429                   -13.5328        -103.712
8.446                   -13.4967        -106.062
8.463                   -13.4658        -108.416
8.48                    -13.4403        -110.772
8.497                     -13.42        -113.125
8.514                   -13.4048        -115.472
8.531                   -13.3945        -117.809
8.548                   -13.3888        -120.135
8.565                   -13.3873        -122.444
8.582                   -13.3898        -124.735
8.599                   -13.3958        -127.005
8.616                   -13.4048        -129.252
8.633                   -13.4162        -131.475
8.65                    -13.4296         -133.67
8.667                   -13.4442        -135.838
8.684                   -13.4595        -137.979
8.701                   -13.4748        -140.091
8.718                   -13.4895        -142.177
8.735                   -13.5028        -144.236
8.752                   -13.5143         -146.27
8.769                   -13.5233        -148.283
8.786                   -13.5292        -150.276
8.803                   -13.5315        -152.253
8.82                    -13.5299        -154.218
8.837                   -13.5239        -156.175
8.854                   -13.5134        -158.128
8.871                   -13.4981        -160.081
8.888                    -13.478        -162.041
8.905                   -13.4532        -164.011
8.922                   -13.4237        -165.996
8.939                   -13.3897        -167.999
8.956                   -13.3517        -170.027
8.973                     -13.31        -172.082
8.99                    -13.2649        -174.167
9.007                   -13.2172        -176.285
9.024                   -13.1672        -178.439
9.041                   -13.1155         179.369
9.058                   -13.0628         177.138
9.075                   -13.0097         174.867
9.092                   -12.9567         172.556
9.109                   -12.9045         170.205
9.126                   -12.8537         167.814
9.143                   -12.8047         165.384
9.16                    -12.7582         162.917
9.177                   -12.7146         160.413
9.194                   -12.6744         157.875
9.211                    -12.638         155.305
9.228                   -12.6058         152.705
9.245                   -12.5782         150.078
9.262                   -12.5556         147.425
9.279                   -12.5381          144.75
9.296                   -12.5262         142.055
9.313                   -12.5199         139.344
9.33                    -12.5196          136.62
9.347                   -12.5254         133.885
9.364                   -12.5374         131.143
9.381                   -12.5557         128.397
9.398                   -12.5805          125.65
9.415                   -12.6117         122.906
9.432                   -12.6494         120.168
9.449                   -12.6937         117.439
9.466                   -12.7444         114.723
9.483                   -12.8015         112.024
9.5                     -12.8649         109.346
9.517                   -12.9344         106.691
9.534                   -13.0099         104.064
9.551                   -13.0912         101.469
9.568                    -13.178         98.9083
9.585                     -13.27          96.387
9.602                   -13.3669         93.9087
9.619                   -13.4681          91.477
9.636                   -13.5733         89.0954
9.653                   -13.6818         86.7676
9.67                    -13.7931         84.4968
9.687                   -13.9066         82.2864
9.704                   -14.0213         80.1392
9.721                   -14.1366         78.0574
9.738                   -14.2515         76.0432
9.755                    -14.365         74.0979
9.772                   -14.4762         72.2226
9.789                   -14.5839         70.4168
9.806                   -14.6871         68.6801
9.823                   -14.7846         67.0105
9.84                    -14.8752         65.4054
9.857                    -14.958         63.8608
9.874                   -15.0319         62.3722
9.891                   -15.0958         60.9332
9.908                    -15.149         59.5375
9.925                   -15.1907          58.177
9.942                   -15.2205         56.8435
9.959                   -15.2378         55.5282
9.976                   -15.2426         54.2217
9.993                   -15.2349         52.9148
10.01                   -15.2149         51.5985
10.027                  -15.1831         50.2641
10.044                  -15.1399         48.9036
10.061                  -15.0861         47.5093
10.078                  -15.0227         46.0749
10.095                  -14.9505         44.5949
10.112                  -14.8705         43.0647
10.129                  -14.7838         41.4807
10.146                  -14.6915         39.8405
10.163                  -14.5946         38.1421
10.18                   -14.4942         36.3849
10.197                  -14.3912         34.5686
10.214                  -14.2867         32.6938
10.231                  -14.1814         30.7616
10.248                  -14.0762         28.7733
10.265                  -13.9718         26.7311
10.282                   -13.869         24.6367
10.299                  -13.7684         22.4929
10.316                  -13.6706          20.302
10.333                   -13.576         18.0667
10.35                   -13.4852         15.7898
10.367                  -13.3986          13.474
10.384                  -13.3165         11.1219
10.401                  -13.2394          8.7367
10.418                  -13.1674         6.32067
10.435                  -13.1009         3.87699
10.452                  -13.0402         1.40796
10.469                  -12.9855        -1.08336
10.486                   -12.937        -3.59447
10.503                  -12.8948        -6.12284
10.52                   -12.8592        -8.66542
10.537                  -12.8304        -11.2198
10.554                  -12.8084        -13.7834
10.571                  -12.7934        -16.3533
10.588                  -12.7856        -18.9268
10.605                   -12.785         -21.501
10.622                  -12.7917        -24.0733
10.639                  -12.8058        -26.6408
10.656                  -12.8274        -29.2004
10.673                  -12.8565        -31.7487
10.69                   -12.8932        -34.2831
10.707                  -12.9373        -36.7998
10.724                  -12.9889        -39.2958
10.741                   -13.048        -41.7675
10.758                  -13.1143         -44.211
10.775                  -13.1879         -46.623
10.792                  -13.2684        -48.9996
10.809                  -13.3556        -51.3369
10.826                  -13.4493         -53.631
10.843                  -13.5491        -55.8778
10.86                   -13.6546        -58.0735
10.877                  -13.7652        -60.2141
10.894                  -13.8804         -62.296
10.911                  -13.9995        -64.3155
10.928                  -14.1218        -66.2694
10.945                  -14.2463        -68.1546
10.962                  -14.3722        -69.9688
10.979                  -14.4984        -71.7104
10.996                  -14.6238        -73.3777
11.013                  -14.7472        -74.9709
11.03                   -14.8673        -76.4909
11.047                   -14.983        -77.9395
11.064                  -15.0928        -79.3195
11.081                  -15.1955        -80.6361
11.098                    -15.29        -81.8946
11.115                  -15.3751        -83.1021
11.132                  -15.4499        -84.2672
11.149                  -15.5135         -85.399